TITLE = "Simulation Data"
VARIABLES = "X", "U"
ZONE T="t=1", I=100
0.005 0.380029645158554368265968443809
0.015 0.167629567485421645611946028963
0.025 0.0488917079977831620893760982348
0.035 0.00898546622563209297364976725881
0.045 0.00437057769023021515052031109368
0.055 0.002778178187021901805397957044
0.065 0.00261387839267466424223213281885
0.075 0.00309873126242611854851095201759
0.085 0.00383770569298029232578007975848
0.095 0.00469952565352496403906778641721
0.105 0.00568549693509427176149134107493
0.115 0.00681666215160869664616402714637
0.125 0.00809729686955066943576857922878
0.135 0.00951874083696774943842429209231
0.145 0.0110708945282316469209169421771
0.155 0.012749477928505059798149454984
0.165 0.0145563196420152295073443440714
0.175 0.0164959777219341166903670719655
0.185 0.0185728200437706498971796581098
0.195 0.0207900777549166049920774911355
0.205 0.0231502600213217895901072031202
0.215 0.025655827624564014624725672089
0.225 0.0283095141747408787397248354135
0.235 0.031114288173005930807639257536
0.245 0.0340732036147224811615118234682
0.255 0.0371893151338704798601961059591
0.265 0.0404656783833501980850925127899
0.275 0.0439053812793256626147873679077
0.285 0.0475115635759905475748384480762
0.295 0.0512874182120916665911417008426
0.305 0.055236185774833422933798508388
0.315 0.0593611512328982331598904983285
0.325 0.0636656443433449332593338701434
0.335 0.0681530413601076422375907573182
0.345 0.0728267662741478704523394443334
0.355 0.077690291450027021753547063523
0.365 0.0827471380490291136940358728977
0.375 0.0880008763900386333316110877949
0.385 0.0934551264423313505800494424913
0.395 0.0991135586826184219267823144128
0.405 0.104979894912911265009042399054
0.415 0.111057908446260687872094768921
0.425 0.117351424366407427865205060109
0.435 0.123864320974914321942901540125
0.445 0.130600531111718882280320959835
0.455 0.13756404124886236876586646849
0.465 0.144758890758983233716581429432
0.475 0.152189175418965715638494485283
0.485 0.15985905094504456889874541466
0.495 0.167772728603136383178701483132
0.505 0.175934469807137967761137138959
0.515 0.184348595360702783372138665397
0.525 0.193019499068413976389420118387
0.535 0.201951634989816752128220294305
0.545 0.211149491128043695109680179443
0.555 0.220617608550632160586861619468
0.565 0.230360637101588877806895909511
0.575 0.240383317890878063304510547314
0.585 0.250690377090875111270933671345
0.595 0.261286524606780334921834566213
0.605 0.27217664989379656533031666367
0.615 0.283365900224413168124435274738
0.625 0.294859358223561423179204903003
0.635 0.306661764348871328642169264818
0.645 0.31877797773627200486616690876
0.655 0.331213690005533988066385863235
0.665 0.343974963106764137591718311399
0.675 0.357066716091391279044698042892
0.685 0.370492717195322158194104836404
0.695 0.384258259552217236962047320662
0.705 0.398371751881276748539562561006
0.715 0.412841077718054459723024466625
0.725 0.427668426731521878165151105312
0.735 0.442853120981658363305120178438
0.745 0.45840250351797506003569198776
0.755 0.474334984732258829836532714514
0.765 0.490663881393515359570450810672
0.775 0.507379668967390664520634705313
0.785 0.52446274701275431600584855271
0.795 0.541923604185978811535049707696
0.805 0.559815993697353434343163582613
0.815 0.578183477676091981353414363266
0.825 0.596989074294082651507446921413
0.835 0.616136055031242957906053750283
0.845 0.635595391131837384297402721412
0.855 0.655503908104583224958029634791
0.865 0.676064338425305047638541840134
0.875 0.697293316496837100267051162927
0.885 0.718909193025654905379535207403
0.895 0.740572578906562196118087460963
0.905 0.762309024211778907798458731016
0.915 0.784590841654700775492622930217
0.925 0.80784575249522906325613228991
0.935 0.831680977424193287490409074564
0.945 0.854591953299231121410558225943
0.955 0.874088897055412533564607735922
0.965 0.885770783015006220223938146314
0.975 0.87856493072568670937286132586
0.985 0.803869640028326750810336737027
0.995 0.619902920826499437445797849476
